 Gaussian 03, Revision B.04,
 Gaussian 03:  x86-Linux-G03RevB.04 2-Jun-2003

 ----------------------------------------------------------
 # b3lyp/6-31g* pop=full gfprint freq guess=read geom=check
 ----------------------------------------------------------

 InChI=1/H3N/h1H3
 ----------------
 Redundant internal coordinates taken from checkpoint file:
 ../CHK/ammonia.chk
 Charge =  0 Multiplicity = 1

                         Standard orientation:
 ---------------------------------------------------------------------
 Center     Atomic     Atomic              Coordinates (Angstroms)
 Number     Number      Type              X           Y           Z
 ---------------------------------------------------------------------
    1          1             0        0.000000    0.938715   -0.278301
    2          1             0        0.812951   -0.469357   -0.278301
    3          7             0        0.000000    0.000000    0.119272
    4          1             0       -0.812951   -0.469357   -0.278301
 ---------------------------------------------------------------------

 SCF Done:  E(RB+HF-LYP) =  -56.5479476356     A.U. after    1 cycles

 The electronic state is 1-A1.
 Alpha  occ. eigenvalues --  -14.30602  -0.84529  -0.45226  -0.45226  -0.25235
 Alpha virt. eigenvalues --    0.07860   0.16779   0.16779   0.68325   0.68325
 Alpha virt. eigenvalues --    0.72190   0.91513   0.91513   0.92215   1.15589
 Alpha virt. eigenvalues --    1.67547   1.67547   1.94082   2.40297   2.40297

 Mulliken atomic charges:
              1
     1  H    0.295913
     2  H    0.295913
     3  N   -0.887738
     4  H    0.295913
 Sum of Mulliken charges=   0.00000

 Dipole moment (field-independent basis, Debye):
    X=     0.0000    Y=     0.0000    Z=    -1.9113  Tot=     1.9113
 Quadrupole moment (field-independent basis, Debye-Ang):
   XX=    -6.1573   YY=    -6.1573   ZZ=    -8.7870
   XY=     0.0000   XZ=     0.0000   YZ=     0.0000

  Exact polarizability:   9.582   0.000   9.582   0.000   0.000   5.752
 Approx polarizability:  11.478   0.000  11.478   0.000   0.000   6.631

                     1                      2                      3
                    A1                      E                      E
 Frequencies --  1131.3925              1726.9607              1726.9610
 Red. masses --     1.1798                 1.0643                 1.0643
 Frc consts  --     0.8898                 1.8701                 1.8701
 IR Inten    --   156.4253                15.3646                15.3647

                     4                      5                      6
                    A1                      E                      E
 Frequencies --  3436.1618              3567.8704              3567.8706
 Red. masses --     1.0274                 1.0886                 1.0886
 Frc consts  --     7.1471                 8.1649                 8.1649
 IR Inten    --     0.7735                 0.4453                 0.4454

 - Thermochemistry -
 -------------------
 Temperature   298.150 Kelvin.  Pressure   1.00000 Atm.
 Atom  1 has atomic number  1 and mass   1.00783

 Molecular mass:    17.02655 amu.
 Principal axes and moments of inertia in atomic units:
                           1         2         3
     EIGENVALUES --     6.16066   6.16066   9.51418
           X            0.57139   0.82068   0.00000
           Y            0.82068  -0.57139   0.00000
           Z            0.00000   0.00000   1.00000
 This molecule is an oblate symmetric top.
 Rotational symmetry number  3.
 Rotational temperatures (Kelvin)     14.05918    14.05918     9.10365
 Rotational constants (GHZ):         292.94612   292.94612   189.68955
 Zero-point vibrational energy      90660.3 (Joules/Mol)
                                   21.66833 (Kcal/Mol)
 Vibrational temperatures:   1627.82  2484.71  2484.71  4943.86  5133.36
          (Kelvin)           5133.36

 Zero-point correction=                           0.034531 (Hartree/Particle)
 Thermal correction to Energy=                    0.037389
 Thermal correction to Enthalpy=                  0.038333
 Thermal correction to Gibbs Free Energy=         0.016489
 Sum of electronic and zero-point Energies=            -56.513417
 Sum of electronic and thermal Energies=               -56.510559
 Sum of electronic and thermal Enthalpies=             -56.509614
 Sum of electronic and thermal Free Energies=          -56.531459

                     E (Thermal)             CV                S
                      KCal/Mol        Cal/Mol-Kelvin    Cal/Mol-Kelvin
 Total                   23.462              6.282             45.976
 Electronic               0.000              0.000              0.000
 Translational            0.889              2.981             34.441
 Rotational               0.889              2.981             11.471
 Vibrational             21.685              0.321              0.064

 Optimization completed.
    -- Stationary point found.
 Normal termination of Gaussian 03 at Wed Jan 30 12:23:08 2008.
